<?xml version="1.0" encoding="UTF-8"?>

<!-- generated on 2024-09-29 20:04:54 by Eclipse SUMO GUI Version 1.19.0
<configuration xmlns:xsi="http://www.w3.org/2001/XMLSchema-instance" xsi:noNamespaceSchemaLocation="http://sumo.dlr.de/xsd/sumoConfiguration.xsd">

    <input>
        <net-file value="C:\Users\kriehl\Documents\GitHub\eth_microsimulation_traffic\Lecture02\sumo_example_hello_world_logging\Network.net.xml"/>
        <route-files value="C:\Users\kriehl\Documents\GitHub\eth_microsimulation_traffic\Lecture02\sumo_example_hello_world_logging\Routes.xml"/>
        <additional-files value="C:\Users\kriehl\Documents\GitHub\eth_microsimulation_traffic\Lecture02\sumo_example_hello_world_logging\AdditionalFile.xml"/>
        <junction-taz value="true"/>
    </input>

    <output>
        <full-output value="C:\Users\kriehl\Documents\GitHub\eth_microsimulation_traffic\Lecture02\sumo_example_hello_world_logging\Output_Full.xml"/>
        <lanedata-output value="C:\Users\kriehl\Documents\GitHub\eth_microsimulation_traffic\Lecture02\sumo_example_hello_world_logging\Output_LaneData.xml"/>
    </output>

</configuration>
-->

<meandata xmlns:xsi="http://www.w3.org/2001/XMLSchema-instance" xsi:noNamespaceSchemaLocation="http://sumo.dlr.de/xsd/meandata_file.xsd">
</meandata>
